<?xml version="1.0"?>
<VTKFile type="UnstructuredGrid" version="0.1" byte_order="LittleEndian">
  <UnstructuredGrid>
    <Piece NumberOfPoints="1" NumberOfCells="1">
      <PointData>
        <DataArray type="UInt64" Name="bulk_node_ids" format="ascii">
          11913
        </DataArray>
        <DataArray type="Int32" Name="well_id" format="ascii">
          203 208 403
        </DataArray>
        <DataArray type="Int32" Name="role_sign" format="ascii">
          -1 -1 1
        </DataArray>
        <DataArray type="Int32" Name="MaterialID" format="ascii">
          5
        </DataArray>
        <DataArray type="Int32" Name="cell_id" format="ascii">
          22601
        </DataArray>
        <DataArray type="Float64" Name="depth_m" format="ascii">
          702.274118
        </DataArray>
        <DataArray type="Float64" Name="distance_to_well_m" format="ascii">
          0.0
        </DataArray>
      </PointData>
      <CellData>
        <DataArray type="Int32" Name="MaterialIDs" format="ascii">
          5
        </DataArray>
      </CellData>
      <Points>
        <DataArray type="Float64" Name="Points" NumberOfComponents="3" format="ascii">
          245596.74555800 3292275.46309000 4031.45849124
        </DataArray>
      </Points>
      <Cells>
        <DataArray type="Int64" Name="connectivity" format="ascii">0</DataArray>
        <DataArray type="Int64" Name="offsets" format="ascii">1</DataArray>
        <DataArray type="UInt8" Name="types" format="ascii">1</DataArray>
      </Cells>
    </Piece>
  </UnstructuredGrid>
</VTKFile>
