<?xml version="1.0"?>
<VTKFile type="UnstructuredGrid" version="0.1" byte_order="LittleEndian" header_type="UInt32" compressor="vtkZLibDataCompressor">
  <UnstructuredGrid>
    <Piece NumberOfPoints="655" NumberOfCells="647">
      <PointData Scalars="vtkOriginalPointIds">
        <DataArray type="Int64" Name="vtkOriginalPointIds" format="ascii" RangeMin="0" RangeMax="2420">
          0 2 3 4 5 21
          22 23 34 35 36 37
          61 62 69 96 109 149
          153 154 193 194 195 223
          224 225 226 247 255 256
          326 332 355 379 509 536
          602 603 604 605 606 607
          608 609 610 611 612 613
          614 615 616 617 618 619
          620 621 622 623 624 625
          626 627 628 629 630 631
          632 633 634 635 636 637
          638 639 640 641 642 643
          644 645 646 647 648 720
          721 722 723 724 725 726
          727 728 729 730 731 732
          733 734 735 736 737 738
          739 740 741 742 743 744
          745 746 747 748 749 750
          751 752 753 754 755 756
          757 758 759 760 761 762
          763 764 765 766 767 768
          820 821 822 823 824 825
          826 827 828 829 830 831
          832 833 834 835 836 837
          838 839 840 841 842 843
          844 845 846 847 848 849
          850 851 852 853 854 855
          856 857 858 859 860 861
          862 863 864 865 866 867
          868 869 870 871 872 873
          874 875 876 877 878 879
          880 881 882 883 884 885
          886 887 888 889 890 891
          892 893 894 895 896 897
          898 899 900 901 902 903
          904 905 906 907 908 909
          910 911 912 913 914 915
          916 917 933 934 935 936
          937 938 939 940 941 942
          943 944 945 946 947 948
          949 967 968 969 970 971
          972 973 974 975 976 977
          978 979 980 981 982 983
          984 985 986 987 988 989
          990 991 992 993 994 995
          1011 1012 1013 1014 1015 1016
          1017 1018 1019 1020 1021 1105
          1106 1107 1108 1109 1110 1111
          1112 1113 1114 1115 1116 1117
          1118 1119 1120 1121 1122 1123
          1124 1125 1126 1127 1128 1129
          1130 1137 1138 1139 1140 1141
          1142 1143 1144 1145 1146 1147
          1148 1149 1150 1151 1152 1153
          1154 1155 1156 1157 1158 1159
          1160 1161 1162 1163 1164 1165
          1166 1167 1168 1169 1170 1342
          1343 1344 1345 1346 1347 1348
          1349 1350 1351 1352 1353 1354
          1355 1356 1357 1358 1359 1360
          1361 1362 1363 1364 1365 1366
          1367 1368 1369 1370 1371 1372
          1455 1456 1457 1458 1459 1460
          1461 1462 1463 1464 1465 1466
          1467 1468 1469 1470 1471 1472
          1473 1474 1475 1476 1477 1478
          1479 1480 1481 1482 1483 1484
          1485 1486 1487 1488 1489 1490
          1491 1492 1493 1494 1495 1496
          1497 1498 1499 1500 1501 1502
          1503 1504 1505 1506 1507 1508
          1509 1510 1511 1512 1513 1514
          1515 1516 1517 1518 1519 1520
          1521 1522 1523 1524 1525 1526
          1527 1528 1529 1530 1531 1532
          1533 1534 1535 1536 1537 1538
          1539 1540 1541 1542 1543 1544
          1545 1546 1547 1548 1549 1550
          1551 1552 1553 1554 1555 1556
          1557 1558 1559 1560 1561 1562
          1563 1564 1565 1566 1567 1568
          1569 1570 1571 1572 1573 1574
          1575 1576 1577 1578 1645 1646
          1647 1648 1649 1650 1651 1652
          1653 1654 1655 1656 1657 1658
          1659 1660 1661 1662 1663 1664
          1665 1666 1667 1668 1669 1670
          1671 1672 1673 1674 1675 1676
          1677 1678 1679 1680 1681 1682
          1683 1684 1685 1686 1687 1788
          1789 1790 1791 1792 1793 1794
          1795 1796 1797 1798 1799 1800
          1801 1802 1803 1804 1805 1806
          1807 1808 1809 1810 1811 1812
          1813 1814 1815 1816 1817 1848
          1849 1850 1851 1852 1853 1854
          1855 1856 1857 1858 1859 1860
          1861 1862 1863 1864 1865 1866
          1867 1868 1869 1870 1871 1872
          1873 1874 1875 1876 1877 1878
          1879 1880 1881 1882 1883 1916
          1917 1918 1919 1920 1921 1922
          1923 1924 1925 1926 1927 1928
          1929 1930 1931 1932 2394 2395
          2396 2397 2398 2399 2400 2401
          2402 2403 2404 2405 2406 2407
          2408 2409 2410 2411 2412 2413
          2414 2415 2416 2417 2418 2419
          2420
        </DataArray>
      </PointData>
      <CellData Scalars="MaterialIDs">
        <DataArray type="Int32" Name="MaterialIDs" format="ascii" RangeMin="100" RangeMax="100">
          100 100 100 100 100 100
          100 100 100 100 100 100
          100 100 100 100 100 100
          100 100 100 100 100 100
          100 100 100 100 100 100
          100 100 100 100 100 100
          100 100 100 100 100 100
          100 100 100 100 100 100
          100 100 100 100 100 100
          100 100 100 100 100 100
          100 100 100 100 100 100
          100 100 100 100 100 100
          100 100 100 100 100 100
          100 100 100 100 100 100
          100 100 100 100 100 100
          100 100 100 100 100 100
          100 100 100 100 100 100
          100 100 100 100 100 100
          100 100 100 100 100 100
          100 100 100 100 100 100
          100 100 100 100 100 100
          100 100 100 100 100 100
          100 100 100 100 100 100
          100 100 100 100 100 100
          100 100 100 100 100 100
          100 100 100 100 100 100
          100 100 100 100 100 100
          100 100 100 100 100 100
          100 100 100 100 100 100
          100 100 100 100 100 100
          100 100 100 100 100 100
          100 100 100 100 100 100
          100 100 100 100 100 100
          100 100 100 100 100 100
          100 100 100 100 100 100
          100 100 100 100 100 100
          100 100 100 100 100 100
          100 100 100 100 100 100
          100 100 100 100 100 100
          100 100 100 100 100 100
          100 100 100 100 100 100
          100 100 100 100 100 100
          100 100 100 100 100 100
          100 100 100 100 100 100
          100 100 100 100 100 100
          100 100 100 100 100 100
          100 100 100 100 100 100
          100 100 100 100 100 100
          100 100 100 100 100 100
          100 100 100 100 100 100
          100 100 100 100 100 100
          100 100 100 100 100 100
          100 100 100 100 100 100
          100 100 100 100 100 100
          100 100 100 100 100 100
          100 100 100 100 100 100
          100 100 100 100 100 100
          100 100 100 100 100 100
          100 100 100 100 100 100
          100 100 100 100 100 100
          100 100 100 100 100 100
          100 100 100 100 100 100
          100 100 100 100 100 100
          100 100 100 100 100 100
          100 100 100 100 100 100
          100 100 100 100 100 100
          100 100 100 100 100 100
          100 100 100 100 100 100
          100 100 100 100 100 100
          100 100 100 100 100 100
          100 100 100 100 100 100
          100 100 100 100 100 100
          100 100 100 100 100 100
          100 100 100 100 100 100
          100 100 100 100 100 100
          100 100 100 100 100 100
          100 100 100 100 100 100
          100 100 100 100 100 100
          100 100 100 100 100 100
          100 100 100 100 100 100
          100 100 100 100 100 100
          100 100 100 100 100 100
          100 100 100 100 100 100
          100 100 100 100 100 100
          100 100 100 100 100 100
          100 100 100 100 100 100
          100 100 100 100 100 100
          100 100 100 100 100 100
          100 100 100 100 100 100
          100 100 100 100 100 100
          100 100 100 100 100 100
          100 100 100 100 100 100
          100 100 100 100 100 100
          100 100 100 100 100 100
          100 100 100 100 100 100
          100 100 100 100 100 100
          100 100 100 100 100 100
          100 100 100 100 100 100
          100 100 100 100 100 100
          100 100 100 100 100 100
          100 100 100 100 100 100
          100 100 100 100 100 100
          100 100 100 100 100 100
          100 100 100 100 100 100
          100 100 100 100 100 100
          100 100 100 100 100 100
          100 100 100 100 100 100
          100 100 100 100 100
        </DataArray>
        <DataArray type="Int32" Name="grid_dim" format="ascii" RangeMin="1" RangeMax="1">
          1 1 1 1 1 1
          1 1 1 1 1 1
          1 1 1 1 1 1
          1 1 1 1 1 1
          1 1 1 1 1 1
          1 1 1 1 1 1
          1 1 1 1 1 1
          1 1 1 1 1 1
          1 1 1 1 1 1
          1 1 1 1 1 1
          1 1 1 1 1 1
          1 1 1 1 1 1
          1 1 1 1 1 1
          1 1 1 1 1 1
          1 1 1 1 1 1
          1 1 1 1 1 1
          1 1 1 1 1 1
          1 1 1 1 1 1
          1 1 1 1 1 1
          1 1 1 1 1 1
          1 1 1 1 1 1
          1 1 1 1 1 1
          1 1 1 1 1 1
          1 1 1 1 1 1
          1 1 1 1 1 1
          1 1 1 1 1 1
          1 1 1 1 1 1
          1 1 1 1 1 1
          1 1 1 1 1 1
          1 1 1 1 1 1
          1 1 1 1 1 1
          1 1 1 1 1 1
          1 1 1 1 1 1
          1 1 1 1 1 1
          1 1 1 1 1 1
          1 1 1 1 1 1
          1 1 1 1 1 1
          1 1 1 1 1 1
          1 1 1 1 1 1
          1 1 1 1 1 1
          1 1 1 1 1 1
          1 1 1 1 1 1
          1 1 1 1 1 1
          1 1 1 1 1 1
          1 1 1 1 1 1
          1 1 1 1 1 1
          1 1 1 1 1 1
          1 1 1 1 1 1
          1 1 1 1 1 1
          1 1 1 1 1 1
          1 1 1 1 1 1
          1 1 1 1 1 1
          1 1 1 1 1 1
          1 1 1 1 1 1
          1 1 1 1 1 1
          1 1 1 1 1 1
          1 1 1 1 1 1
          1 1 1 1 1 1
          1 1 1 1 1 1
          1 1 1 1 1 1
          1 1 1 1 1 1
          1 1 1 1 1 1
          1 1 1 1 1 1
          1 1 1 1 1 1
          1 1 1 1 1 1
          1 1 1 1 1 1
          1 1 1 1 1 1
          1 1 1 1 1 1
          1 1 1 1 1 1
          1 1 1 1 1 1
          1 1 1 1 1 1
          1 1 1 1 1 1
          1 1 1 1 1 1
          1 1 1 1 1 1
          1 1 1 1 1 1
          1 1 1 1 1 1
          1 1 1 1 1 1
          1 1 1 1 1 1
          1 1 1 1 1 1
          1 1 1 1 1 1
          1 1 1 1 1 1
          1 1 1 1 1 1
          1 1 1 1 1 1
          1 1 1 1 1 1
          1 1 1 1 1 1
          1 1 1 1 1 1
          1 1 1 1 1 1
          1 1 1 1 1 1
          1 1 1 1 1 1
          1 1 1 1 1 1
          1 1 1 1 1 1
          1 1 1 1 1 1
          1 1 1 1 1 1
          1 1 1 1 1 1
          1 1 1 1 1 1
          1 1 1 1 1 1
          1 1 1 1 1 1
          1 1 1 1 1 1
          1 1 1 1 1 1
          1 1 1 1 1 1
          1 1 1 1 1 1
          1 1 1 1 1 1
          1 1 1 1 1 1
          1 1 1 1 1 1
          1 1 1 1 1 1
          1 1 1 1 1 1
          1 1 1 1 1 1
          1 1 1 1 1
        </DataArray>
        <DataArray type="Int32" Name="gmsh_physical_tag" format="ascii" RangeMin="5" RangeMax="9">
          5 5 5 5 5 5
          5 5 5 5 5 5
          5 5 5 5 5 5
          5 5 5 5 5 5
          5 5 5 5 5 5
          5 5 5 5 5 5
          5 5 5 5 5 5
          5 5 5 5 5 5
          5 5 5 5 5 5
          5 5 5 5 5 5
          5 5 5 5 5 5
          5 6 6 6 6 6
          7 7 7 7 5 5
          5 5 5 5 5 5
          5 5 5 5 5 5
          5 5 6 6 6 6
          6 7 7 7 7 7
          5 5 5 5 5 5
          5 5 5 5 5 5
          5 5 5 5 5 5
          5 5 5 5 5 5
          5 5 5 5 5 5
          5 5 5 5 5 5
          5 5 5 5 6 6
          6 6 6 7 7 7
          7 7 7 7 5 5
          5 5 5 5 5 5
          5 5 5 5 5 5
          5 5 6 6 6 6
          6 7 7 7 7 7
          7 7 7 5 5 5
          5 5 5 5 5 5
          5 5 5 5 5 5
          5 6 6 6 6 6
          7 7 5 5 5 5
          5 5 5 5 5 5
          5 5 5 5 5 5
          6 6 5 5 5 5
          5 5 5 5 5 5
          5 5 5 5 5 5
          6 6 6 6 6 7
          7 7 7 7 7 7
          7 7 5 5 5 5
          5 5 5 5 5 5
          5 5 5 5 5 5
          5 5 5 5 5 5
          5 5 5 5 5 5
          6 6 6 6 6 7
          7 7 7 7 7 5
          5 5 5 5 5 5
          5 5 5 5 5 5
          5 5 5 6 6 6
          6 6 7 7 7 7
          7 7 7 7 7 7
          7 7 7 7 5 5
          5 5 5 5 5 5
          5 5 5 5 5 5
          5 5 5 6 6 6
          6 6 7 7 7 7
          7 7 7 7 7 7
          7 5 5 5 5 5
          5 5 5 5 5 5
          5 5 5 5 5 6
          6 6 6 6 7 7
          7 7 7 7 7 7
          7 7 7 7 7 7
          5 5 5 5 5 5
          5 5 5 5 5 5
          5 5 5 5 6 6
          6 6 6 7 7 7
          7 7 7 7 7 7
          7 7 7 7 7 7
          7 8 8 8 8 8
          8 8 8 8 8 8
          8 8 8 9 9 9
          9 9 9 5 5 5
          5 5 5 5 5 5
          5 5 5 5 5 5
          5 6 6 6 6 6
          7 7 7 7 7 7
          7 7 7 7 7 7
          7 7 5 5 5 5
          5 5 5 5 5 5
          5 5 5 5 5 5
          6 6 5 5 5 5
          5 5 5 5 5 5
          5 5 5 5 5 5
          6 6 6 6 6 7
          7 7 7 7 7 5
          5 5 5 5 5 5
          5 5 5 5 5 5
          5 5 5 6 6 6
          6 6 7 7 7 7
          7 7 7 7 7 7
          5 5 5 5 5 5
          5 5 5 5 5 5
          5 5 5 5 6 6
          6 6 6 7 7 7
          7 7 7 7 7 7
          7 7 7 7 7 7
          7 5 5 5 5 5
          5 5 5 5 5 5
          5 5 5 5 5 6
          6 5 5 5 5 5
          5 5 5 5 5 5
          5 5 5 5 5 6
          6 6 6 6 7 7
          7 7 7 7 7
        </DataArray>
        <DataArray type="Int32" Name="cell_id" format="ascii" RangeMin="0" RangeMax="646">
          0 1 2 3 4 5
          6 7 8 9 10 11
          12 13 14 15 16 17
          18 19 20 21 22 23
          24 25 26 27 28 29
          30 31 32 33 34 35
          36 37 38 39 40 41
          42 43 44 45 46 47
          48 49 50 51 52 53
          54 55 56 57 58 59
          60 61 62 63 64 65
          66 67 68 69 70 71
          72 73 74 75 76 77
          78 79 80 81 82 83
          84 85 86 87 88 89
          90 91 92 93 94 95
          96 97 98 99 100 101
          102 103 104 105 106 107
          108 109 110 111 112 113
          114 115 116 117 118 119
          120 121 122 123 124 125
          126 127 128 129 130 131
          132 133 134 135 136 137
          138 139 140 141 142 143
          144 145 146 147 148 149
          150 151 152 153 154 155
          156 157 158 159 160 161
          162 163 164 165 166 167
          168 169 170 171 172 173
          174 175 176 177 178 179
          180 181 182 183 184 185
          186 187 188 189 190 191
          192 193 194 195 196 197
          198 199 200 201 202 203
          204 205 206 207 208 209
          210 211 212 213 214 215
          216 217 218 219 220 221
          222 223 224 225 226 227
          228 229 230 231 232 233
          234 235 236 237 238 239
          240 241 242 243 244 245
          246 247 248 249 250 251
          252 253 254 255 256 257
          258 259 260 261 262 263
          264 265 266 267 268 269
          270 271 272 273 274 275
          276 277 278 279 280 281
          282 283 284 285 286 287
          288 289 290 291 292 293
          294 295 296 297 298 299
          300 301 302 303 304 305
          306 307 308 309 310 311
          312 313 314 315 316 317
          318 319 320 321 322 323
          324 325 326 327 328 329
          330 331 332 333 334 335
          336 337 338 339 340 341
          342 343 344 345 346 347
          348 349 350 351 352 353
          354 355 356 357 358 359
          360 361 362 363 364 365
          366 367 368 369 370 371
          372 373 374 375 376 377
          378 379 380 381 382 383
          384 385 386 387 388 389
          390 391 392 393 394 395
          396 397 398 399 400 401
          402 403 404 405 406 407
          408 409 410 411 412 413
          414 415 416 417 418 419
          420 421 422 423 424 425
          426 427 428 429 430 431
          432 433 434 435 436 437
          438 439 440 441 442 443
          444 445 446 447 448 449
          450 451 452 453 454 455
          456 457 458 459 460 461
          462 463 464 465 466 467
          468 469 470 471 472 473
          474 475 476 477 478 479
          480 481 482 483 484 485
          486 487 488 489 490 491
          492 493 494 495 496 497
          498 499 500 501 502 503
          504 505 506 507 508 509
          510 511 512 513 514 515
          516 517 518 519 520 521
          522 523 524 525 526 527
          528 529 530 531 532 533
          534 535 536 537 538 539
          540 541 542 543 544 545
          546 547 548 549 550 551
          552 553 554 555 556 557
          558 559 560 561 562 563
          564 565 566 567 568 569
          570 571 572 573 574 575
          576 577 578 579 580 581
          582 583 584 585 586 587
          588 589 590 591 592 593
          594 595 596 597 598 599
          600 601 602 603 604 605
          606 607 608 609 610 611
          612 613 614 615 616 617
          618 619 620 621 622 623
          624 625 626 627 628 629
          630 631 632 633 634 635
          636 637 638 639 640 641
          642 643 644 645 646
        </DataArray>
        <DataArray type="Int64" Name="vtkOriginalCellIds" format="ascii" RangeMin="0" RangeMax="646">
          0 1 2 3 4 5
          6 7 8 9 10 11
          12 13 14 15 16 17
          18 19 20 21 22 23
          24 25 26 27 28 29
          30 31 32 33 34 35
          36 37 38 39 40 41
          42 43 44 45 46 47
          48 49 50 51 52 53
          54 55 56 57 58 59
          60 61 62 63 64 65
          66 67 68 69 70 71
          72 73 74 75 76 77
          78 79 80 81 82 83
          84 85 86 87 88 89
          90 91 92 93 94 95
          96 97 98 99 100 101
          102 103 104 105 106 107
          108 109 110 111 112 113
          114 115 116 117 118 119
          120 121 122 123 124 125
          126 127 128 129 130 131
          132 133 134 135 136 137
          138 139 140 141 142 143
          144 145 146 147 148 149
          150 151 152 153 154 155
          156 157 158 159 160 161
          162 163 164 165 166 167
          168 169 170 171 172 173
          174 175 176 177 178 179
          180 181 182 183 184 185
          186 187 188 189 190 191
          192 193 194 195 196 197
          198 199 200 201 202 203
          204 205 206 207 208 209
          210 211 212 213 214 215
          216 217 218 219 220 221
          222 223 224 225 226 227
          228 229 230 231 232 233
          234 235 236 237 238 239
          240 241 242 243 244 245
          246 247 248 249 250 251
          252 253 254 255 256 257
          258 259 260 261 262 263
          264 265 266 267 268 269
          270 271 272 273 274 275
          276 277 278 279 280 281
          282 283 284 285 286 287
          288 289 290 291 292 293
          294 295 296 297 298 299
          300 301 302 303 304 305
          306 307 308 309 310 311
          312 313 314 315 316 317
          318 319 320 321 322 323
          324 325 326 327 328 329
          330 331 332 333 334 335
          336 337 338 339 340 341
          342 343 344 345 346 347
          348 349 350 351 352 353
          354 355 356 357 358 359
          360 361 362 363 364 365
          366 367 368 369 370 371
          372 373 374 375 376 377
          378 379 380 381 382 383
          384 385 386 387 388 389
          390 391 392 393 394 395
          396 397 398 399 400 401
          402 403 404 405 406 407
          408 409 410 411 412 413
          414 415 416 417 418 419
          420 421 422 423 424 425
          426 427 428 429 430 431
          432 433 434 435 436 437
          438 439 440 441 442 443
          444 445 446 447 448 449
          450 451 452 453 454 455
          456 457 458 459 460 461
          462 463 464 465 466 467
          468 469 470 471 472 473
          474 475 476 477 478 479
          480 481 482 483 484 485
          486 487 488 489 490 491
          492 493 494 495 496 497
          498 499 500 501 502 503
          504 505 506 507 508 509
          510 511 512 513 514 515
          516 517 518 519 520 521
          522 523 524 525 526 527
          528 529 530 531 532 533
          534 535 536 537 538 539
          540 541 542 543 544 545
          546 547 548 549 550 551
          552 553 554 555 556 557
          558 559 560 561 562 563
          564 565 566 567 568 569
          570 571 572 573 574 575
          576 577 578 579 580 581
          582 583 584 585 586 587
          588 589 590 591 592 593
          594 595 596 597 598 599
          600 601 602 603 604 605
          606 607 608 609 610 611
          612 613 614 615 616 617
          618 619 620 621 622 623
          624 625 626 627 628 629
          630 631 632 633 634 635
          636 637 638 639 640 641
          642 643 644 645 646
        </DataArray>
      </CellData>
      <Points>
        <DataArray type="Float64" Name="Points" NumberOfComponents="3" format="ascii" RangeMin="3299843.7806496574" RangeMax="3302500.2289194446">
          244898.2759982306 3291483.092457095 3626.48232918332 245653.0132911256 3291612.797674327 3590.594024789238
          245739.7234399315 3291627.69922854 3586.470894470257 246111.7084988348 3291691.62664186 3568.782735753191
          246529.6682927107 3291763.455033494 3548.908445114025 246323.6069592686 3291727.653217499 2747.700511740414
          246111.915300418 3291691.295330761 2804.316038067699 245653.9419468187 3291612.953652064 3583.01432217281
          245623.6269697967 3291607.86192481 3830.445649342253 245772.3423328042 3291633.928247901 4883.787695146132
          245503.8143797566 3291587.738108471 4808.35792496797 245334.8883408005 3291558.525404285 4437.224960978295
          245840.0861122655 3290753.505647593 3852.551528940979 245813.2170848701 3290825.799847908 4314.383425017762
          245638.9219154564 3290765.521089933 4601.194548680821 245758.0724660777 3290677.427885747 3743.27573459312
          245667.6017692247 3291525.133817513 3567.041723945631 245481.5437424137 3291875.157663119 4681.507628305422
          245476.1579811624 3292035.207441934 4554.858066371686 245654.5865626626 3291609.03999657 3582.016113438251
          245647.1033384445 3293349.188588602 4047.796587481126 245985.1957494242 3293073.674414514 2991.091381089203
          245659.165722593 3292204.046299045 4873.912191890217 245636.8260506628 3292411.757230149 4799.546578521003
          245986.6305731891 3292317.842837559 3560.800944165426 246283.121284957 3291893.844647178 2772.891824500301
          245699.4730619333 3292170.3748425 4748.559389306693 246019.5790259156 3290886.128957154 4526.728770287657
          246258.1405170469 3291521.568323336 3149.708922697028 246254.1253850145 3290784.047847037 3725.899205309372
          246326.228334047 3292445.786468075 3714.172088679435 245952.3437854163 3292493.282185491 4710.930155796937
          245681.5427731656 3292170.025573616 4755.179449794317 245762.3386290442 3291416.89358577 3132.186568341177
          246135.1223156799 3290748.870398948 3601.0800005145 245905.4247760363 3290848.550021802 4383.5758114517
          244973.5739473128 3291496.03277015 3622.901857225606 245046.8542700052 3291508.626344448 3619.417324856394
          245114.83146505 3291520.30855087 3616.184960044129 245177.8353612845 3291531.136072081 3613.189079188947
          245236.2298162642 3291541.171438743 3610.41238060079 245290.3520587399 3291550.472605233 3607.838828808549
          245340.514655836 3291559.093287707 3605.453561019286 245387.0072885209 3291567.083269226 3603.242802693333
          245430.0984696448 3291574.488695009 3601.193785850374 245470.0370509617 3291581.352331422 3599.294677409446
          245507.05366906 3291587.713814466 3597.534510433873 245541.3621111016 3291593.609884489 3595.903119189417
          245573.1605048652 3291599.074590698 3594.391082556834 245602.6324896748 3291604.13949239 3592.989668353393
          245629.9482663494 3291608.833839391 3591.690783406987 245671.248483686 3291615.931479473 3589.726928188044
          245689.8107993551 3291619.121502291 3588.844276646403 245707.2424782049 3291622.117219759 3588.01538770364
          245723.6376396557 3291624.934806749 3587.235785913216 245758.2015882344 3291630.874786793 3585.592245148034
          245777.27545817 3291634.152722661 3584.685268830864 245797.774124448 3291637.675516603 3583.710542416636
          245819.8073304107 3291641.462028535 3582.662847530016 245843.4899525191 3291645.53200053 3581.536721712162
          245868.9454624517 3291649.906651784 3580.326293795416 245896.3065844875 3291654.608791603 3579.025252644274
          245925.7159693832 3291659.6629352 3577.626815112031 245955.1253542789 3291664.717078797 3576.228377579789
          245982.4864763147 3291669.419218616 3574.927336428646 246007.9419862473 3291673.79386987 3573.7169085119
          246031.6246083557 3291677.863841865 3572.590782694047 246053.6578143184 3291681.650353797 3571.543087807427
          246074.1564805964 3291685.173147738 3570.568361393199 246093.230350532 3291688.451083607 3569.661385076029
          246131.1866558102 3291694.974056392 3567.856535295096 246151.4084854151 3291698.449274625 3566.894972664993
          246173.2291187846 3291702.19925494 3565.857385758996 246196.7750663268 3291706.245738755 3564.737758915661
          246222.182740962 3291710.612169285 3563.529605601922 246249.5993480553 3291715.323844477 3562.225926096147
          246279.1837296318 3291720.408062091 3560.819167345106 246311.1072867263 3291725.894278218 3559.301179105574
          246345.5549764461 3291731.814278621 3557.663166533257 246382.7263703858 3291738.202360634 3555.895639854434
          246422.0303798346 3291744.956942833 3554.026705765003 246459.6453195935 3291751.42125032 3552.238088161527
          246495.1529681303 3291757.52340972 3550.549673780483 246315.9132389806 3291726.34514572 2777.512795191446
          246308.2081217748 3291725.03513626 2807.36924039006 246300.3892221897 3291723.705781735 2837.666579254639
          246292.3584312643 3291722.340401844 2868.784972753711 246284.0241961213 3291720.923430941 2901.079177782667
          246275.3018915695 3291719.440481211 2934.877107249747 246266.1127900584 3291717.878167545 2970.483821380622
          246256.3823383622 3291716.223814543 3008.188205371628 246246.0383626336 3291714.465151346 3048.269924601443
          246235.0094009424 3291712.59002813 3091.00588585134 246223.2232907111 3291710.586175951 3136.675710829423
          246210.9633175054 3291708.501758484 3184.181700468978 246199.4746254579 3291706.548472782 3228.699064106399
          246188.8151564355 3291704.736170011 3270.003283654863 246178.9250589915 3291703.054674342 3308.326276603203
          246169.748800661 3291701.494544249 3343.883224882659 246161.2348619574 3291700.047020486 3376.873760592661
          246153.3354363633 3291698.703975081 3407.483128503751 246146.0061696307 3291697.457867007 3435.883196238175
          246139.2059102618 3291696.301699765 3462.233421129277 246132.8964756938 3291695.228981629 3486.681756226929
          246127.042439209 3291694.233689413 3509.365475997857 246121.6109312166 3291693.310234692 3530.411946335589
          246116.571323432 3291692.453410105 3549.939848329048 245748.3895095307 3291629.179992379 3568.259296790289
          245757.3867412083 3291630.717341596 3549.35176764217 245767.0714929252 3291632.37216677 3528.999426840057
          245777.4967018507 3291634.153513228 3507.091027823884 245788.7189764986 3291636.071053619 3483.507608766036
          245800.7992583507 3291638.135200961 3458.121102180413 245813.8031476985 3291640.357164319 3430.793650171535
          245827.8012587947 3291642.74900949 3401.376858089777 245842.8696058053 3291645.323724949 3369.710983460132
          245859.090017814 3291648.09529276 3335.624063856653 245876.5505686193 3291651.078762018 3298.931013691597
          245895.0292791897 3291654.236203357 3260.098318119305 245913.4538186504 3291657.384388525 3221.379462211488
          245931.8870813132 3291660.534064219 3182.642274643043 245950.5115117471 3291663.716404586 3143.503351259278
          245969.5056419432 3291666.961915232 3103.587510121235 245988.420642654 3291670.19390509 3063.837958248917
          246006.1207610631 3291673.218309058 3026.641460844122 246022.6525694545 3291676.043084901 2991.900147045528
          246038.0931856343 3291678.681409672 2959.451955096411 246052.5146272764 3291681.145588968 2929.145541082019
          246065.9841708185 3291683.447118257 2900.839524713824 246078.5646446324 3291685.596732968 2874.401873238727
          246090.3147322867 3291687.604460312 2849.709264136573 246101.289571405 3291689.479721607 2826.645826630246
          245631.7464377618 3291609.249291299 3813.38272568762 245640.135947195 3291610.682799541 3795.752314486532
          245649.1586754909 3291612.224505343 3776.791204629321 245658.8634755429 3291613.882756159 3756.396732592331
          245669.3019025188 3291615.666361174 3734.460556068312 245680.5294181569 3291617.584797089 3710.866123158719
          245692.1398746331 3291619.568665774 3686.466946599499 245703.0006757927 3291621.424441501 3663.643157921474
          245713.1081971325 3291623.151504956 3642.402373956402 245722.5146901072 3291624.758784298 3622.634789162074
          245731.269813281 3291626.254764644 3604.236046911517 245650.6872471663 3291612.406990164 3609.579232776603
          245648.2813640874 3291612.00289616 3629.216088935047 245645.6919674878 3291611.567979082 3650.350785383948
          245642.9048544378 3291611.099853394 3673.099246661962 245639.9049284276 3291610.595983475 3697.58469072412
          245636.7353324947 3291610.063615663 3723.454983407384 245633.7354064845 3291609.559745743 3747.940427469542
          245630.9482934345 3291609.091620055 3770.688888747555 245628.3588968349 3291608.656702977 3791.823585196456
          245625.953013756 3291608.252608974 3811.4604413549 246106.7242891763 3291690.779235957 3588.095976363048
          246101.5444467859 3291689.898568946 3608.16727136579 246095.951205106 3291688.94761657 3629.84044118777