<?xml version="1.0"?>
<VTKFile type="UnstructuredGrid" version="0.1" byte_order="LittleEndian">
  <UnstructuredGrid>
    <Piece NumberOfPoints="1" NumberOfCells="1">
      <PointData>
        <DataArray type="UInt64" Name="bulk_node_ids" format="ascii">6579</DataArray>
        <DataArray type="Int64" Name="selected_vtu_node_id" format="ascii">6579</DataArray>
        <DataArray type="Int32" Name="well_code" format="ascii">208</DataArray>
        <DataArray type="Int32" Name="exact_intersection_flag" format="ascii">0</DataArray>
      </PointData>
      <CellData>
        <DataArray type="UInt64" Name="bulk_element_ids" format="ascii">9938</DataArray>
        <DataArray type="Int32" Name="MaterialIDs" format="ascii">1</DataArray>
      </CellData>
      <Points>
        <DataArray type="Float64" NumberOfComponents="3" Name="Points" format="ascii">
          245658.646206 3290849.92095 4354.25411886
        </DataArray>
      </Points>
      <Cells>
        <DataArray type="Int64" Name="connectivity" format="ascii">0</DataArray>
        <DataArray type="Int64" Name="offsets" format="ascii">1</DataArray>
        <DataArray type="UInt8" Name="types" format="ascii">1</DataArray>
      </Cells>
    </Piece>
  </UnstructuredGrid>
</VTKFile>
